MODEL 1
REMARK VINA RESULT:    -7.905      0.000      0.000
REMARK INTER + INTRA:         -11.212
REMARK INTER:                 -11.140
REMARK INTRA:                  -0.073
REMARK UNBOUND:                -0.073
REMARK SMILES CCN1CCN(Cc2ccc(Nc3ncc(F)c(-c4cc(F)c5nc(C)n(C(C)C)c5c4)n3)nc2)CC1
REMARK SMILES IDX 34 1 8 2 9 3 35 4 10 5 11 6 12 7 13 9 18 10 33 11 16 12
REMARK SMILES IDX 15 13 14 14 17 15 19 16 21 17 23 18 20 19 24 20 31 21 25 22
REMARK SMILES IDX 27 23 32 24 22 25 26 26 28 27 29 28 30 29 7 30 6 31 5 32
REMARK SMILES IDX 36 33 4 34 37 35 3 36 2 37 1 38
REMARK H PARENT 12 8
ROOT
ATOM      1  N   UNL     1      57.501  29.367  -2.537  1.00  0.00    -0.239 NA
ATOM      2  C   UNL     1      56.858  29.990  -4.783  1.00  0.00    -0.015 A 
ATOM      3  C   UNL     1      56.634  28.654  -5.098  1.00  0.00     0.010 A 
ATOM      4  C   UNL     1      57.286  30.291  -3.500  1.00  0.00     0.118 A 
ATOM      5  C   UNL     1      56.844  27.673  -4.134  1.00  0.00     0.047 A 
ATOM      6  C   UNL     1      57.274  28.079  -2.880  1.00  0.00     0.132 A 
ENDROOT
BRANCH   6   7
ATOM      7  N   UNL     1      57.484  27.068  -1.909  1.00  0.00    -0.309 N 
ATOM      8  H   UNL     1      57.744  27.410  -0.989  1.00  0.00     0.171 HD
BRANCH   7   9
ATOM      9  C   UNL     1      57.405  25.668  -1.968  1.00  0.00     0.229 A 
ATOM     10  C   UNL     1      57.748  23.741  -3.125  1.00  0.00     0.112 A 
ATOM     11  N   UNL     1      57.839  25.087  -3.102  1.00  0.00    -0.210 NA
ATOM     12  C   UNL     1      57.250  22.989  -2.080  1.00  0.00     0.167 A 
ATOM     13  C   UNL     1      56.837  23.704  -0.974  1.00  0.00     0.156 A 
ATOM     14  N   UNL     1      56.900  25.048  -0.884  1.00  0.00    -0.218 NA
ATOM     15  F   UNL     1      57.168  21.655  -2.123  1.00  0.00    -0.203 F 
BRANCH  10  16
ATOM     16  C   UNL     1      58.213  23.119  -4.341  1.00  0.00     0.008 A 
ATOM     17  C   UNL     1      57.708  21.895  -6.384  1.00  0.00     0.151 A 
ATOM     18  C   UNL     1      59.077  21.900  -6.698  1.00  0.00     0.124 A 
ATOM     19  C   UNL     1      57.291  22.511  -5.197  1.00  0.00     0.052 A 
ATOM     20  N   UNL     1      59.737  21.374  -7.785  1.00  0.00    -0.230 NA
ATOM     21  C   UNL     1      59.971  22.513  -5.825  1.00  0.00     0.072 A 
ATOM     22  C   UNL     1      61.005  21.657  -7.584  1.00  0.00     0.107 A 
ATOM     23  N   UNL     1      61.197  22.342  -6.417  1.00  0.00    -0.326 N 
ATOM     24  C   UNL     1      59.580  23.133  -4.638  1.00  0.00     0.039 A 
ATOM     25  F   UNL     1      56.813  21.318  -7.196  1.00  0.00    -0.205 F 
ATOM     26  C   UNL     1      62.124  21.301  -8.480  1.00  0.00     0.088 C 
BRANCH  23  27
ATOM     27  C   UNL     1      62.463  22.806  -5.896  1.00  0.00     0.083 C 
ATOM     28  C   UNL     1      62.699  22.312  -4.466  1.00  0.00     0.031 C 
ATOM     29  C   UNL     1      62.579  24.331  -5.971  1.00  0.00     0.031 C 
ENDBRANCH  23  27
ENDBRANCH  10  16
ENDBRANCH   7   9
ENDBRANCH   6   7
BRANCH   2  30
ATOM     30  C   UNL     1      56.642  31.075  -5.804  1.00  0.00     0.121 C 
BRANCH  30  31
ATOM     31  N   UNL     1      57.858  31.358  -6.563  1.00  0.00    -0.296 NA
ATOM     32  C   UNL     1      58.807  32.134  -5.755  1.00  0.00     0.100 C 
ATOM     33  C   UNL     1      58.481  30.114  -7.032  1.00  0.00     0.100 C 
ATOM     34  C   UNL     1      60.086  32.429  -6.548  1.00  0.00     0.100 C 
ATOM     35  C   UNL     1      59.759  30.409  -7.825  1.00  0.00     0.100 C 
ATOM     36  N   UNL     1      60.708  31.185  -7.016  1.00  0.00    -0.301 NA
BRANCH  36  37
ATOM     37  C   UNL     1      61.926  31.467  -7.774  1.00  0.00     0.081 C 
ATOM     38  C   UNL     1      62.853  30.264  -7.789  1.00  0.00     0.021 C 
ENDBRANCH  36  37
ENDBRANCH  30  31
ENDBRANCH   2  30
TORSDOF 7
ENDMDL
MODEL 2
REMARK VINA RESULT:    -7.418      2.300      5.596
REMARK INTER + INTRA:         -10.526
REMARK INTER:                  -9.975
REMARK INTRA:                  -0.551
REMARK UNBOUND:                -0.073
REMARK SMILES CCN1CCN(Cc2ccc(Nc3ncc(F)c(-c4cc(F)c5nc(C)n(C(C)C)c5c4)n3)nc2)CC1
REMARK SMILES IDX 34 1 8 2 9 3 35 4 10 5 11 6 12 7 13 9 18 10 33 11 16 12
REMARK SMILES IDX 15 13 14 14 17 15 19 16 21 17 23 18 20 19 24 20 31 21 25 22
REMARK SMILES IDX 27 23 32 24 22 25 26 26 28 27 29 28 30 29 7 30 6 31 5 32
REMARK SMILES IDX 36 33 4 34 37 35 3 36 2 37 1 38
REMARK H PARENT 12 8
ROOT
ATOM      1  N   UNL     1      62.962  28.963  -6.388  1.00  0.00    -0.239 NA
ATOM      2  C   UNL     1      61.074  29.936  -7.544  1.00  0.00    -0.015 A 
ATOM      3  C   UNL     1      60.954  28.793  -8.327  1.00  0.00     0.010 A 
ATOM      4  C   UNL     1      62.086  29.971  -6.597  1.00  0.00     0.118 A 
ATOM      5  C   UNL     1      61.837  27.734  -8.142  1.00  0.00     0.047 A 
ATOM      6  C   UNL     1      62.814  27.868  -7.168  1.00  0.00     0.132 A 
ENDROOT
BRANCH   6   7
ATOM      7  N   UNL     1      63.707  26.782  -6.992  1.00  0.00    -0.309 N 
ATOM      8  H   UNL     1      64.577  26.859  -7.509  1.00  0.00     0.171 HD
BRANCH   7   9
ATOM      9  C   UNL     1      63.625  25.602  -6.236  1.00  0.00     0.229 A 
ATOM     10  C   UNL     1      62.350  23.970  -5.298  1.00  0.00     0.112 A 
ATOM     11  N   UNL     1      62.391  25.103  -6.029  1.00  0.00    -0.210 NA
ATOM     12  C   UNL     1      63.470  23.346  -4.787  1.00  0.00     0.167 A 
ATOM     13  C   UNL     1      64.674  23.957  -5.069  1.00  0.00     0.156 A 
ATOM     14  N   UNL     1      64.789  25.090  -5.793  1.00  0.00    -0.218 NA
ATOM     15  F   UNL     1      63.406  22.223  -4.064  1.00  0.00    -0.203 F 
BRANCH  10  16
ATOM     16  C   UNL     1      61.028  23.437  -5.076  1.00  0.00     0.008 A 
ATOM     17  C   UNL     1      59.163  22.084  -5.863  1.00  0.00     0.151 A 
ATOM     18  C   UNL     1      58.470  22.393  -4.681  1.00  0.00     0.124 A 
ATOM     19  C   UNL     1      60.446  22.616  -6.045  1.00  0.00     0.052 A 
ATOM     20  N   UNL     1      57.217  22.004  -4.263  1.00  0.00    -0.230 NA
ATOM     21  C   UNL     1      59.076  23.213  -3.735  1.00  0.00     0.072 A 
ATOM     22  C   UNL     1      57.058  22.573  -3.089  1.00  0.00     0.107 A 
ATOM     23  N   UNL     1      58.150  23.311  -2.727  1.00  0.00    -0.326 N 
ATOM     24  C   UNL     1      60.351  23.755  -3.893  1.00  0.00     0.039 A 
ATOM     25  F   UNL     1      58.619  21.297  -6.801  1.00  0.00    -0.205 F 
ATOM     26  C   UNL     1      55.865  22.458  -2.227  1.00  0.00     0.088 C 
BRANCH  23  27
ATOM     27  C   UNL     1      58.305  24.063  -1.501  1.00  0.00     0.083 C 
ATOM     28  C   UNL     1      57.917  25.532  -1.688  1.00  0.00     0.031 C 
ATOM     29  C   UNL     1      59.725  23.941  -0.941  1.00  0.00     0.031 C 
ENDBRANCH  23  27
ENDBRANCH  10  16
ENDBRANCH   7   9
ENDBRANCH   6   7
BRANCH   2  30
ATOM     30  C   UNL     1      60.136  31.101  -7.720  1.00  0.00     0.121 C 
BRANCH  30  31
ATOM     31  N   UNL     1      58.972  30.998  -6.844  1.00  0.00    -0.296 NA
ATOM     32  C   UNL     1      58.609  29.593  -6.622  1.00  0.00     0.100 C 
ATOM     33  C   UNL     1      59.221  31.672  -5.564  1.00  0.00     0.100 C 
ATOM     34  C   UNL     1      57.389  29.483  -5.700  1.00  0.00     0.100 C 
ATOM     35  C   UNL     1      58.002  31.563  -4.643  1.00  0.00     0.100 C 
ATOM     36  N   UNL     1      57.640  30.157  -4.420  1.00  0.00    -0.301 NA
BRANCH  36  37
ATOM     37  C   UNL     1      56.475  30.053  -3.542  1.00  0.00     0.081 C 
ATOM     38  C   UNL     1      56.567  31.041  -2.392  1.00  0.00     0.021 C 
ENDBRANCH  36  37
ENDBRANCH  30  31
ENDBRANCH   2  30
TORSDOF 7
ENDMDL
MODEL 3
REMARK VINA RESULT:    -6.795      2.785      5.135
REMARK INTER + INTRA:          -9.648
REMARK INTER:                  -9.697
REMARK INTRA:                   0.049
REMARK UNBOUND:                -0.073
REMARK SMILES CCN1CCN(Cc2ccc(Nc3ncc(F)c(-c4cc(F)c5nc(C)n(C(C)C)c5c4)n3)nc2)CC1
REMARK SMILES IDX 34 1 8 2 9 3 35 4 10 5 11 6 12 7 13 9 18 10 33 11 16 12
REMARK SMILES IDX 15 13 14 14 17 15 19 16 21 17 23 18 20 19 24 20 31 21 25 22
REMARK SMILES IDX 27 23 32 24 22 25 26 26 28 27 29 28 30 29 7 30 6 31 5 32
REMARK SMILES IDX 36 33 4 34 37 35 3 36 2 37 1 38
REMARK H PARENT 12 8
ROOT
ATOM      1  N   UNL     1      57.636  25.694  -3.188  1.00  0.00    -0.239 NA
ATOM      2  C   UNL     1      56.660  27.734  -4.042  1.00  0.00    -0.015 A 
ATOM      3  C   UNL     1      56.474  27.134  -5.283  1.00  0.00     0.010 A 
ATOM      4  C   UNL     1      57.240  26.978  -3.036  1.00  0.00     0.118 A 
ATOM      5  C   UNL     1      56.870  25.815  -5.478  1.00  0.00     0.047 A 
ATOM      6  C   UNL     1      57.440  25.145  -4.407  1.00  0.00     0.132 A 
ENDROOT
BRANCH   6   7
ATOM      7  N   UNL     1      57.839  23.802  -4.621  1.00  0.00    -0.309 N 
ATOM      8  H   UNL     1      57.142  23.107  -4.372  1.00  0.00     0.171 HD
BRANCH   7   9
ATOM      9  C   UNL     1      59.023  23.233  -5.116  1.00  0.00     0.229 A 
ATOM     10  C   UNL     1      61.204  23.477  -5.712  1.00  0.00     0.112 A 
ATOM     11  N   UNL     1      60.083  24.056  -5.234  1.00  0.00    -0.210 NA
ATOM     12  C   UNL     1      61.288  22.145  -6.064  1.00  0.00     0.167 A 
ATOM     13  C   UNL     1      60.133  21.409  -5.897  1.00  0.00     0.156 A 
ATOM     14  N   UNL     1      58.979  21.923  -5.424  1.00  0.00    -0.218 NA
ATOM     15  F   UNL     1      62.409  21.591  -6.538  1.00  0.00    -0.203 F 
BRANCH  10  16
ATOM     16  C   UNL     1      62.339  24.359  -5.839  1.00  0.00     0.008 A 
ATOM     17  C   UNL     1      64.697  24.799  -5.422  1.00  0.00     0.151 A 
ATOM     18  C   UNL     1      64.554  26.041  -6.061  1.00  0.00     0.124 A 
ATOM     19  C   UNL     1      63.575  23.967  -5.318  1.00  0.00     0.052 A 
ATOM     20  N   UNL     1      65.485  27.030  -6.291  1.00  0.00    -0.230 NA
ATOM     21  C   UNL     1      63.310  26.404  -6.568  1.00  0.00     0.072 A 
ATOM     22  C   UNL     1      64.827  27.975  -6.924  1.00  0.00     0.107 A 
ATOM     23  N   UNL     1      63.514  27.646  -7.115  1.00  0.00    -0.326 N 
ATOM     24  C   UNL     1      62.179  25.592  -6.478  1.00  0.00     0.039 A 
ATOM     25  F   UNL     1      65.876  24.409  -4.919  1.00  0.00    -0.205 F 
ATOM     26  C   UNL     1      65.393  29.256  -7.394  1.00  0.00     0.088 C 
BRANCH  23  27
ATOM     27  C   UNL     1      62.516  28.458  -7.775  1.00  0.00     0.083 C 
ATOM     28  C   UNL     1      61.849  29.432  -6.800  1.00  0.00     0.031 C 
ATOM     29  C   UNL     1      61.470  27.596  -8.487  1.00  0.00     0.031 C 
ENDBRANCH  23  27
ENDBRANCH  10  16
ENDBRANCH   7   9
ENDBRANCH   6   7
BRANCH   2  30
ATOM     30  C   UNL     1      56.245  29.161  -3.800  1.00  0.00     0.121 C 
BRANCH  30  31
ATOM     31  N   UNL     1      56.763  30.060  -4.828  1.00  0.00    -0.296 NA
ATOM     32  C   UNL     1      57.314  31.280  -4.224  1.00  0.00     0.100 C 
ATOM     33  C   UNL     1      57.781  29.388  -5.645  1.00  0.00     0.100 C 
ATOM     34  C   UNL     1      57.861  32.224  -5.301  1.00  0.00     0.100 C 
ATOM     35  C   UNL     1      58.327  30.331  -6.722  1.00  0.00     0.100 C 
ATOM     36  N   UNL     1      58.879  31.550  -6.117  1.00  0.00    -0.301 NA
BRANCH  36  37
ATOM     37  C   UNL     1      59.399  32.451  -7.146  1.00  0.00     0.081 C 
ATOM     38  C   UNL     1      60.830  32.858  -6.844  1.00  0.00     0.021 C 
ENDBRANCH  36  37
ENDBRANCH  30  31
ENDBRANCH   2  30
TORSDOF 7
ENDMDL
MODEL 4
REMARK VINA RESULT:    -6.354      3.062      6.887
REMARK INTER + INTRA:          -9.027
REMARK INTER:                  -8.915
REMARK INTRA:                  -0.113
REMARK UNBOUND:                -0.073
REMARK SMILES CCN1CCN(Cc2ccc(Nc3ncc(F)c(-c4cc(F)c5nc(C)n(C(C)C)c5c4)n3)nc2)CC1
REMARK SMILES IDX 34 1 8 2 9 3 35 4 10 5 11 6 12 7 13 9 18 10 33 11 16 12
REMARK SMILES IDX 15 13 14 14 17 15 19 16 21 17 23 18 20 19 24 20 31 21 25 22
REMARK SMILES IDX 27 23 32 24 22 25 26 26 28 27 29 28 30 29 7 30 6 31 5 32
REMARK SMILES IDX 36 33 4 34 37 35 3 36 2 37 1 38
REMARK H PARENT 12 8
ROOT
ATOM      1  N   UNL     1      60.813  31.685  -6.358  1.00  0.00    -0.239 NA
ATOM      2  C   UNL     1      58.399  31.619  -6.470  1.00  0.00    -0.015 A 
ATOM      3  C   UNL     1      58.464  31.278  -7.817  1.00  0.00     0.010 A 
ATOM      4  C   UNL     1      59.592  31.809  -5.791  1.00  0.00     0.118 A 
ATOM      5  C   UNL     1      59.702  31.143  -8.436  1.00  0.00     0.047 A 
ATOM      6  C   UNL     1      60.837  31.354  -7.668  1.00  0.00     0.132 A 
ENDROOT
BRANCH   6   7
ATOM      7  N   UNL     1      62.091  31.213  -8.313  1.00  0.00    -0.309 N 
ATOM      8  H   UNL     1      62.233  31.832  -9.105  1.00  0.00     0.171 HD
BRANCH   7   9
ATOM      9  C   UNL     1      63.190  30.374  -8.071  1.00  0.00     0.229 A 
ATOM     10  C   UNL     1      63.997  28.373  -7.354  1.00  0.00     0.112 A 
ATOM     11  N   UNL     1      62.918  29.152  -7.574  1.00  0.00    -0.210 NA
ATOM     12  C   UNL     1      65.294  28.772  -7.607  1.00  0.00     0.167 A 
ATOM     13  C   UNL     1      65.439  30.046  -8.114  1.00  0.00     0.156 A 
ATOM     14  N   UNL     1      64.406  30.878  -8.359  1.00  0.00    -0.218 NA
ATOM     15  F   UNL     1      66.350  27.983  -7.381  1.00  0.00    -0.203 F 
BRANCH  10  16
ATOM     16  C   UNL     1      63.705  27.065  -6.821  1.00  0.00     0.008 A 
ATOM     17  C   UNL     1      64.471  25.065  -5.662  1.00  0.00     0.151 A 
ATOM     18  C   UNL     1      63.179  24.528  -5.784  1.00  0.00     0.124 A 
ATOM     19  C   UNL     1      64.718  26.339  -6.189  1.00  0.00     0.052 A 
ATOM     20  N   UNL     1      62.680  23.317  -5.359  1.00  0.00    -0.230 NA
ATOM     21  C   UNL     1      62.191  25.275  -6.419  1.00  0.00     0.072 A 
ATOM     22  C   UNL     1      61.418  23.321  -5.725  1.00  0.00     0.107 A 
ATOM     23  N   UNL     1      61.075  24.478  -6.367  1.00  0.00    -0.326 N 
ATOM     24  C   UNL     1      62.413  26.545  -6.951  1.00  0.00     0.039 A 
ATOM     25  F   UNL     1      65.451  24.382  -5.058  1.00  0.00    -0.205 F 
ATOM     26  C   UNL     1      60.448  22.232  -5.494  1.00  0.00     0.088 C 
BRANCH  23  27
ATOM     27  C   UNL     1      59.771  24.807  -6.898  1.00  0.00     0.083 C 
ATOM     28  C   UNL     1      58.704  24.825  -5.801  1.00  0.00     0.031 C 
ATOM     29  C   UNL     1      59.370  23.861  -8.034  1.00  0.00     0.031 C 
ENDBRANCH  23  27
ENDBRANCH  10  16
ENDBRANCH   7   9
ENDBRANCH   6   7
BRANCH   2  30
ATOM     30  C   UNL     1      57.075  31.776  -5.771  1.00  0.00     0.121 C 
BRANCH  30  31
ATOM     31  N   UNL     1      56.676  30.553  -5.080  1.00  0.00    -0.296 NA
ATOM     32  C   UNL     1      57.185  29.368  -5.782  1.00  0.00     0.100 C 
ATOM     33  C   UNL     1      57.141  30.564  -3.688  1.00  0.00     0.100 C 
ATOM     34  C   UNL     1      56.770  28.083  -5.057  1.00  0.00     0.100 C 
ATOM     35  C   UNL     1      56.726  29.279  -2.964  1.00  0.00     0.100 C 
ATOM     36  N   UNL     1      57.237  28.095  -3.666  1.00  0.00    -0.301 NA
BRANCH  36  37
ATOM     37  C   UNL     1      56.839  26.869  -2.974  1.00  0.00     0.081 C 
ATOM     38  C   UNL     1      57.780  26.561  -1.822  1.00  0.00     0.021 C 
ENDBRANCH  36  37
ENDBRANCH  30  31
ENDBRANCH   2  30
TORSDOF 7
ENDMDL
