MODEL 1
REMARK VINA RESULT:    -7.099      0.000      0.000
REMARK INTER + INTRA:          -9.726
REMARK INTER:                  -8.759
REMARK INTRA:                  -0.967
REMARK UNBOUND:                -0.967
REMARK SMILES CCc1cc2c(cc1N1CCC(N3CCOCC3)CC1)C(C)(C)c1[nH]c3cc(C#N)ccc3c1C2=O
REMARK SMILES IDX 36 1 25 2 21 3 8 4 6 5 24 6 7 7 5 8 3 9 34 10 22 11 23 12
REMARK SMILES IDX 4 13 35 14 33 15 26 16 32 17 27 18 31 19 28 20 9 22 12 23
REMARK SMILES IDX 11 24 19 25 10 26 20 27 13 28 16 29 15 30 17 31 14 32 18 33
REMARK SMILES IDX 2 34 1 35 29 36 30 37
REMARK H PARENT 25 21
ROOT
ATOM      1  O   UNL     1     119.324 138.104 217.455  1.00  0.00    -0.289 OA
ATOM      2  N   UNL     1     117.924 134.977 214.444  1.00  0.00    -0.357 N 
ATOM      3  C   UNL     1     117.086 137.328 213.909  1.00  0.00     0.031 C 
ATOM      4  C   UNL     1     116.694 141.120 214.460  1.00  0.00     0.040 A 
ATOM      5  C   UNL     1     117.226 138.732 214.534  1.00  0.00    -0.023 A 
ATOM      6  C   UNL     1     117.844 136.316 214.728  1.00  0.00     0.037 A 
ATOM      7  C   UNL     1     116.592 139.834 213.925  1.00  0.00     0.031 A 
ATOM      8  C   UNL     1     117.974 138.972 215.712  1.00  0.00     0.027 A 
ATOM      9  C   UNL     1     117.433 141.337 215.616  1.00  0.00    -0.024 A 
ATOM     10  C   UNL     1     118.572 136.550 215.873  1.00  0.00     0.052 A 
ATOM     11  C   UNL     1     117.660 137.341 212.474  1.00  0.00     0.023 C 
ATOM     12  C   UNL     1     115.595 136.923 213.871  1.00  0.00     0.023 C 
ATOM     13  C   UNL     1     118.071 140.268 216.242  1.00  0.00     0.018 A 
ATOM     14  C   UNL     1     118.683 137.876 216.436  1.00  0.00     0.195 C 
ATOM     15  C   UNL     1     119.117 135.304 216.304  1.00  0.00     0.011 A 
ATOM     16  C   UNL     1     118.693 134.337 215.389  1.00  0.00     0.048 A 
ATOM     17  C   UNL     1     119.930 134.898 217.383  1.00  0.00     0.012 A 
ATOM     18  C   UNL     1     119.043 132.986 215.497  1.00  0.00     0.046 A 
ATOM     19  C   UNL     1     120.287 133.550 217.504  1.00  0.00     0.020 A 
ATOM     20  C   UNL     1     119.849 132.610 216.575  1.00  0.00     0.054 A 
ATOM     21  H   UNL     1     117.484 134.522 213.656  1.00  0.00     0.166 HD
ENDROOT
BRANCH   4  22
ATOM     22  N   UNL     1     116.046 142.180 213.815  1.00  0.00    -0.371 N 
ATOM     23  C   UNL     1     114.606 144.268 212.431  1.00  0.00     0.060 C 
ATOM     24  C   UNL     1     114.198 143.812 213.833  1.00  0.00     0.040 C 
ATOM     25  C   UNL     1     116.112 144.076 212.242  1.00  0.00     0.040 C 
ATOM     26  C   UNL     1     114.613 142.361 214.084  1.00  0.00     0.118 C 
ATOM     27  C   UNL     1     116.524 142.626 212.501  1.00  0.00     0.118 C 
BRANCH  23  28
ATOM     28  N   UNL     1     114.253 145.673 212.240  1.00  0.00    -0.296 NA
ATOM     29  O   UNL     1     114.894 148.375 211.610  1.00  0.00    -0.379 OA
ATOM     30  C   UNL     1     114.160 147.569 210.686  1.00  0.00     0.175 C 
ATOM     31  C   UNL     1     114.610 147.991 212.955  1.00  0.00     0.175 C 
ATOM     32  C   UNL     1     114.525 146.097 210.859  1.00  0.00     0.113 C 
ATOM     33  C   UNL     1     114.987 146.530 213.182  1.00  0.00     0.113 C 
ENDBRANCH  23  28
ENDBRANCH   4  22
BRANCH   9  34
ATOM     34  C   UNL     1     117.561 142.702 216.209  1.00  0.00     0.034 C 
ATOM     35  C   UNL     1     116.550 142.943 217.325  1.00  0.00     0.009 C 
ENDBRANCH   9  34
BRANCH  20  36
ATOM     36  C   UNL     1     120.228 131.239 216.723  1.00  0.00     0.099 C 
ATOM     37  N   UNL     1     120.535 130.127 216.843  1.00  0.00    -0.192 NA
ENDBRANCH  20  36
TORSDOF 4
ENDMDL
MODEL 2
REMARK VINA RESULT:    -7.007      3.523     11.818
REMARK INTER + INTRA:          -9.613
REMARK INTER:                  -9.057
REMARK INTRA:                  -0.556
REMARK UNBOUND:                -0.967
REMARK SMILES CCc1cc2c(cc1N1CCC(N3CCOCC3)CC1)C(C)(C)c1[nH]c3cc(C#N)ccc3c1C2=O
REMARK SMILES IDX 36 1 25 2 21 3 8 4 6 5 24 6 7 7 5 8 3 9 34 10 22 11 23 12
REMARK SMILES IDX 4 13 35 14 33 15 26 16 32 17 27 18 31 19 28 20 9 22 12 23
REMARK SMILES IDX 11 24 19 25 10 26 20 27 13 28 16 29 15 30 17 31 14 32 18 33
REMARK SMILES IDX 2 34 1 35 29 36 30 37
REMARK H PARENT 25 21
ROOT
ATOM      1  O   UNL     1     119.591 137.544 216.875  1.00  0.00    -0.289 OA
ATOM      2  N   UNL     1     115.989 138.842 214.397  1.00  0.00    -0.357 N 
ATOM      3  C   UNL     1     116.396 136.323 214.328  1.00  0.00     0.031 C 
ATOM      4  C   UNL     1     118.216 133.041 215.198  1.00  0.00     0.040 A 
ATOM      5  C   UNL     1     117.416 135.340 214.941  1.00  0.00    -0.023 A 
ATOM      6  C   UNL     1     116.704 137.732 214.764  1.00  0.00     0.037 A 
ATOM      7  C   UNL     1     117.313 133.962 214.662  1.00  0.00     0.031 A 
ATOM      8  C   UNL     1     118.471 135.763 215.786  1.00  0.00     0.027 A 
ATOM      9  C   UNL     1     119.245 133.474 216.025  1.00  0.00    -0.024 A 
ATOM     10  C   UNL     1     117.730 138.142 215.586  1.00  0.00     0.052 A 
ATOM     11  C   UNL     1     114.973 135.953 214.801  1.00  0.00     0.023 C 
ATOM     12  C   UNL     1     116.469 136.251 212.786  1.00  0.00     0.023 C 
ATOM     13  C   UNL     1     119.374 134.829 216.319  1.00  0.00     0.018 A 
ATOM     14  C   UNL     1     118.671 137.198 216.143  1.00  0.00     0.195 C 
ATOM     15  C   UNL     1     117.635 139.559 215.726  1.00  0.00     0.011 A 
ATOM     16  C   UNL     1     116.534 139.968 214.969  1.00  0.00     0.048 A 
ATOM     17  C   UNL     1     118.375 140.538 216.421  1.00  0.00     0.012 A 
ATOM     18  C   UNL     1     116.136 141.306 214.873  1.00  0.00     0.046 A 
ATOM     19  C   UNL     1     117.989 141.881 216.334  1.00  0.00     0.020 A 
ATOM     20  C   UNL     1     116.886 142.258 215.571  1.00  0.00     0.054 A 
ATOM     21  H   UNL     1     115.176 138.838 213.795  1.00  0.00     0.166 HD
ENDROOT
BRANCH   4  22
ATOM     22  N   UNL     1     118.068 131.683 214.890  1.00  0.00    -0.371 N 
ATOM     23  C   UNL     1     117.618 128.910 214.214  1.00  0.00     0.060 C 
ATOM     24  C   UNL     1     118.032 129.933 213.154  1.00  0.00     0.040 C 
ATOM     25  C   UNL     1     118.183 129.319 215.576  1.00  0.00     0.040 C 
ATOM     26  C   UNL     1     117.586 131.343 213.544  1.00  0.00     0.118 C 
ATOM     27  C   UNL     1     117.741 130.733 215.959  1.00  0.00     0.118 C 
BRANCH  23  28
ATOM     28  N   UNL     1     118.108 127.583 213.847  1.00  0.00    -0.296 NA
ATOM     29  O   UNL     1     120.189 125.747 213.211  1.00  0.00    -0.379 OA
ATOM     30  C   UNL     1     119.518 125.676 214.470  1.00  0.00     0.175 C 
ATOM     31  C   UNL     1     119.310 126.229 212.194  1.00  0.00     0.175 C 
ATOM     32  C   UNL     1     119.011 127.055 214.880  1.00  0.00     0.113 C 
ATOM     33  C   UNL     1     118.798 127.621 212.550  1.00  0.00     0.113 C 
ENDBRANCH  23  28
ENDBRANCH   4  22
BRANCH   9  34
ATOM     34  C   UNL     1     120.224 132.511 216.612  1.00  0.00     0.034 C 
ATOM     35  C   UNL     1     121.665 132.867 216.263  1.00  0.00     0.009 C 
ENDBRANCH   9  34
BRANCH  20  36
ATOM     36  C   UNL     1     116.513 143.636 215.499  1.00  0.00     0.099 C 
ATOM     37  N   UNL     1     116.211 144.754 215.441  1.00  0.00    -0.192 NA
ENDBRANCH  20  36
TORSDOF 4
ENDMDL
MODEL 3
REMARK VINA RESULT:    -6.879      3.906      5.358
REMARK INTER + INTRA:          -9.455
REMARK INTER:                  -8.531
REMARK INTRA:                  -0.924
REMARK UNBOUND:                -0.967
REMARK SMILES CCc1cc2c(cc1N1CCC(N3CCOCC3)CC1)C(C)(C)c1[nH]c3cc(C#N)ccc3c1C2=O
REMARK SMILES IDX 36 1 25 2 21 3 8 4 6 5 24 6 7 7 5 8 3 9 34 10 22 11 23 12
REMARK SMILES IDX 4 13 35 14 33 15 26 16 32 17 27 18 31 19 28 20 9 22 12 23
REMARK SMILES IDX 11 24 19 25 10 26 20 27 13 28 16 29 15 30 17 31 14 32 18 33
REMARK SMILES IDX 2 34 1 35 29 36 30 37
REMARK H PARENT 25 21
ROOT
ATOM      1  O   UNL     1     117.707 133.121 214.622  1.00  0.00    -0.289 OA
ATOM      2  N   UNL     1     113.884 133.306 212.143  1.00  0.00    -0.357 N 
ATOM      3  C   UNL     1     114.696 135.603 212.902  1.00  0.00     0.031 C 
ATOM      4  C   UNL     1     117.052 138.076 214.682  1.00  0.00     0.040 A 
ATOM      5  C   UNL     1     115.879 136.152 213.727  1.00  0.00    -0.023 A 
ATOM      6  C   UNL     1     114.779 134.102 212.807  1.00  0.00     0.037 A 
ATOM      7  C   UNL     1     115.997 137.540 213.941  1.00  0.00     0.031 A 
ATOM      8  C   UNL     1     116.870 135.313 214.291  1.00  0.00     0.027 A 
ATOM      9  C   UNL     1     118.016 137.238 215.228  1.00  0.00    -0.024 A 
ATOM     10  C   UNL     1     115.744 133.287 213.355  1.00  0.00     0.052 A 
ATOM     11  C   UNL     1     114.740 136.197 211.476  1.00  0.00     0.023 C 
ATOM     12  C   UNL     1     113.364 135.987 213.585  1.00  0.00     0.023 C 
ATOM     13  C   UNL     1     117.928 135.861 215.035  1.00  0.00     0.018 A 
ATOM     14  C   UNL     1     116.839 133.830 214.126  1.00  0.00     0.195 C 
ATOM     15  C   UNL     1     115.423 131.941 213.010  1.00  0.00     0.011 A 
ATOM     16  C   UNL     1     114.252 131.984 212.251  1.00  0.00     0.048 A 
ATOM     17  C   UNL     1     116.011 130.684 213.268  1.00  0.00     0.012 A 
ATOM     18  C   UNL     1     113.640 130.836 211.735  1.00  0.00     0.046 A 
ATOM     19  C   UNL     1     115.410 129.527 212.758  1.00  0.00     0.020 A 
ATOM     20  C   UNL     1     114.242 129.604 212.003  1.00  0.00     0.054 A 
ATOM     21  H   UNL     1     113.069 133.637 211.643  1.00  0.00     0.166 HD
ENDROOT
BRANCH   4  22
ATOM     22  N   UNL     1     117.123 139.463 214.864  1.00  0.00    -0.371 N 
ATOM     23  C   UNL     1     117.119 142.330 215.215  1.00  0.00     0.060 C 
ATOM     24  C   UNL     1     116.793 141.385 216.373  1.00  0.00     0.040 C 
ATOM     25  C   UNL     1     118.081 141.646 214.242  1.00  0.00     0.040 C 
ATOM     26  C   UNL     1     116.223 140.061 215.860  1.00  0.00     0.118 C 
ATOM     27  C   UNL     1     117.511 140.319 213.738  1.00  0.00     0.118 C 
BRANCH  23  28
ATOM     28  N   UNL     1     117.717 143.562 215.727  1.00  0.00    -0.296 NA
ATOM     29  O   UNL     1     118.115 146.380 215.691  1.00  0.00    -0.379 OA
ATOM     30  C   UNL     1     117.325 145.772 216.714  1.00  0.00     0.175 C 
ATOM     31  C   UNL     1     119.146 145.496 215.253  1.00  0.00     0.175 C 
ATOM     32  C   UNL     1     116.679 144.491 216.196  1.00  0.00     0.113 C 
ATOM     33  C   UNL     1     118.543 144.209 214.698  1.00  0.00     0.113 C 
ENDBRANCH  23  28
ENDBRANCH   4  22
BRANCH   9  34
ATOM     34  C   UNL     1     119.157 137.783 216.023  1.00  0.00     0.034 C 
ATOM     35  C   UNL     1     118.817 137.915 217.504  1.00  0.00     0.009 C 
ENDBRANCH   9  34
BRANCH  20  36
ATOM     36  C   UNL     1     113.648 128.407 211.495  1.00  0.00     0.099 C 
ATOM     37  N   UNL     1     113.166 127.436 211.083  1.00  0.00    -0.192 NA
ENDBRANCH  20  36
TORSDOF 4
ENDMDL
MODEL 4
REMARK VINA RESULT:    -6.551      2.963      4.371
REMARK INTER + INTRA:          -9.051
REMARK INTER:                  -8.057
REMARK INTRA:                  -0.993
REMARK UNBOUND:                -0.967
REMARK SMILES CCc1cc2c(cc1N1CCC(N3CCOCC3)CC1)C(C)(C)c1[nH]c3cc(C#N)ccc3c1C2=O
REMARK SMILES IDX 36 1 25 2 21 3 8 4 6 5 24 6 7 7 5 8 3 9 34 10 22 11 23 12
REMARK SMILES IDX 4 13 35 14 33 15 26 16 32 17 27 18 31 19 28 20 9 22 12 23
REMARK SMILES IDX 11 24 19 25 10 26 20 27 13 28 16 29 15 30 17 31 14 32 18 33
REMARK SMILES IDX 2 34 1 35 29 36 30 37
REMARK H PARENT 25 21
ROOT
ATOM      1  O   UNL     1     114.433 137.628 212.837  1.00  0.00    -0.289 OA
ATOM      2  N   UNL     1     117.435 135.356 215.410  1.00  0.00    -0.357 N 
ATOM      3  C   UNL     1     117.524 137.882 215.763  1.00  0.00     0.031 C 
ATOM      4  C   UNL     1     116.477 141.543 215.177  1.00  0.00     0.040 A 
ATOM      5  C   UNL     1     116.783 139.114 215.202  1.00  0.00    -0.023 A 
ATOM      6  C   UNL     1     116.992 136.622 215.130  1.00  0.00     0.037 A 
ATOM      7  C   UNL     1     117.124 140.403 215.660  1.00  0.00     0.031 A 
ATOM      8  C   UNL     1     115.758 139.011 214.230  1.00  0.00     0.027 A 
ATOM      9  C   UNL     1     115.473 141.423 214.224  1.00  0.00    -0.024 A 
ATOM     10  C   UNL     1     115.996 136.524 214.186  1.00  0.00     0.052 A 
ATOM     11  C   UNL     1     117.311 137.802 217.292  1.00  0.00     0.023 C 
ATOM     12  C   UNL     1     119.033 137.999 215.453  1.00  0.00     0.023 C 
ATOM     13  C   UNL     1     115.114 140.163 213.751  1.00  0.00     0.018 A 
ATOM     14  C   UNL     1     115.321 137.696 213.678  1.00  0.00     0.195 C 
ATOM     15  C   UNL     1     115.824 135.141 213.879  1.00  0.00     0.011 A 
ATOM     16  C   UNL     1     116.740 134.434 214.661  1.00  0.00     0.048 A 
ATOM     17  C   UNL     1     114.980 134.415 213.012  1.00  0.00     0.012 A 
ATOM     18  C   UNL     1     116.854 133.040 214.622  1.00  0.00     0.046 A 
ATOM     19  C   UNL     1     115.083 133.020 212.961  1.00  0.00     0.020 A 
ATOM     20  C   UNL     1     116.006 132.344 213.755  1.00  0.00     0.054 A 
ATOM     21  H   UNL     1     118.165 135.127 216.071  1.00  0.00     0.166 HD
ENDROOT
BRANCH   4  22
ATOM     22  N   UNL     1     116.853 142.799 215.667  1.00  0.00    -0.371 N 
ATOM     23  C   UNL     1     117.769 145.336 216.704  1.00  0.00     0.060 C 
ATOM     24  C   UNL     1     117.992 144.945 215.242  1.00  0.00     0.040 C 
ATOM     25  C   UNL     1     116.495 144.671 217.230  1.00  0.00     0.040 C 
ATOM     26  C   UNL     1     118.047 143.425 215.080  1.00  0.00     0.118 C 
ATOM     27  C   UNL     1     116.550 143.152 217.058  1.00  0.00     0.118 C 
BRANCH  23  28
ATOM     28  N   UNL     1     117.660 146.788 216.822  1.00  0.00    -0.296 NA
ATOM     29  O   UNL     1     116.671 149.323 215.982  1.00  0.00    -0.379 OA
ATOM     30  C   UNL     1     116.177 148.710 217.175  1.00  0.00     0.175 C 
ATOM     31  C   UNL     1     118.034 148.964 215.755  1.00  0.00     0.175 C 
ATOM     32  C   UNL     1     116.267 147.190 217.067  1.00  0.00     0.113 C 
ATOM     33  C   UNL     1     118.168 147.450 215.613  1.00  0.00     0.113 C 
ENDBRANCH  23  28
ENDBRANCH   4  22
BRANCH   9  34
ATOM     34  C   UNL     1     114.764 142.624 213.691  1.00  0.00     0.034 C 
ATOM     35  C   UNL     1     115.168 142.943 212.256  1.00  0.00     0.009 C 
ENDBRANCH   9  34
BRANCH  20  36
ATOM     36  C   UNL     1     116.091 130.919 213.684  1.00  0.00     0.099 C 
ATOM     37  N   UNL     1     116.160 129.762 213.626  1.00  0.00    -0.192 NA
ENDBRANCH  20  36
TORSDOF 4
ENDMDL
MODEL 5
REMARK VINA RESULT:    -6.452      4.122      6.101
REMARK INTER + INTRA:          -8.928
REMARK INTER:                  -7.918
REMARK INTRA:                  -1.010
REMARK UNBOUND:                -0.967
REMARK SMILES CCc1cc2c(cc1N1CCC(N3CCOCC3)CC1)C(C)(C)c1[nH]c3cc(C#N)ccc3c1C2=O
REMARK SMILES IDX 36 1 25 2 21 3 8 4 6 5 24 6 7 7 5 8 3 9 34 10 22 11 23 12
REMARK SMILES IDX 4 13 35 14 33 15 26 16 32 17 27 18 31 19 28 20 9 22 12 23
REMARK SMILES IDX 11 24 19 25 10 26 20 27 13 28 16 29 15 30 17 31 14 32 18 33
REMARK SMILES IDX 2 34 1 35 29 36 30 37
REMARK H PARENT 25 21
ROOT
ATOM      1  O   UNL     1     118.462 131.747 214.697  1.00  0.00    -0.289 OA
ATOM      2  N   UNL     1     114.482 130.981 212.606  1.00  0.00    -0.357 N 
ATOM      3  C   UNL     1     114.841 133.436 213.206  1.00  0.00     0.031 C 
ATOM      4  C   UNL     1     116.754 136.445 214.663  1.00  0.00     0.040 A 
ATOM      5  C   UNL     1     115.946 134.267 213.892  1.00  0.00    -0.023 A 
ATOM      6  C   UNL     1     115.240 131.984 213.152  1.00  0.00     0.037 A 
ATOM      7  C   UNL     1     115.778 135.657 214.049  1.00  0.00     0.031 A 
ATOM      8  C   UNL     1     117.142 133.690 214.381  1.00  0.00     0.027 A 
ATOM      9  C   UNL     1     117.923 135.861 215.137  1.00  0.00    -0.024 A 
ATOM     10  C   UNL     1     116.404 131.424 213.627  1.00  0.00     0.052 A 
ATOM     11  C   UNL     1     114.626 133.949 211.765  1.00  0.00     0.023 C 
ATOM     12  C   UNL     1     113.525 133.562 214.006  1.00  0.00     0.023 C 
ATOM     13  C   UNL     1     118.118 134.489 214.997  1.00  0.00     0.018 A 
ATOM     14  C   UNL     1     117.420 132.227 214.267  1.00  0.00     0.195 C 
ATOM     15  C   UNL     1     116.354 130.023 213.359  1.00  0.00     0.011 A 
ATOM     16  C   UNL     1     115.137 129.776 212.719  1.00  0.00     0.048 A 
ATOM     17  C   UNL     1     117.221 128.936 213.596  1.00  0.00     0.012 A 
ATOM     18  C   UNL     1     114.745 128.498 212.303  1.00  0.00     0.046 A 
ATOM     19  C   UNL     1     116.842 127.653 213.187  1.00  0.00     0.020 A 
ATOM     20  C   UNL     1     115.623 127.439 212.550  1.00  0.00     0.054 A 
ATOM     21  H   UNL     1     113.573 131.104 212.179  1.00  0.00     0.166 HD
ENDROOT
BRANCH   4  22
ATOM     22  N   UNL     1     116.538 137.822 214.793  1.00  0.00    -0.371 N 
ATOM     23  C   UNL     1     115.944 140.639 215.030  1.00  0.00     0.060 C 
ATOM     24  C   UNL     1     115.771 139.685 216.214  1.00  0.00     0.040 C 
ATOM     25  C   UNL     1     117.060 140.133 214.115  1.00  0.00     0.040 C 
ATOM     26  C   UNL     1     115.498 138.258 215.736  1.00  0.00     0.118 C 
ATOM     27  C   UNL     1     116.788 138.702 213.647  1.00  0.00     0.118 C 
BRANCH  23  28
ATOM     28  N   UNL     1     116.262 141.982 215.513  1.00  0.00    -0.296 NA
ATOM     29  O   UNL     1     117.688 143.791 217.186  1.00  0.00    -0.379 OA
ATOM     30  C   UNL     1     117.988 143.702 215.792  1.00  0.00     0.175 C 
ATOM     31  C   UNL     1     116.309 143.513 217.427  1.00  0.00     0.175 C 
ATOM     32  C   UNL     1     117.676 142.302 215.270  1.00  0.00     0.113 C 
ATOM     33  C   UNL     1     115.958 142.108 216.945  1.00  0.00     0.113 C 
ENDBRANCH  23  28
ENDBRANCH   4  22
BRANCH   9  34
ATOM     34  C   UNL     1     118.984 136.679 215.797  1.00  0.00     0.034 C 
ATOM     35  C   UNL     1     118.804 136.745 217.310  1.00  0.00     0.009 C 
ENDBRANCH   9  34
BRANCH  20  36
ATOM     36  C   UNL     1     115.260 126.117 212.142  1.00  0.00     0.099 C 
ATOM     37  N   UNL     1     114.965 125.045 211.811  1.00  0.00    -0.192 NA
ENDBRANCH  20  36
TORSDOF 4
ENDMDL
MODEL 6
REMARK VINA RESULT:    -6.409      4.210     11.408
REMARK INTER + INTRA:          -8.875
REMARK INTER:                  -7.951
REMARK INTRA:                  -0.924
REMARK UNBOUND:                -0.967
REMARK SMILES CCc1cc2c(cc1N1CCC(N3CCOCC3)CC1)C(C)(C)c1[nH]c3cc(C#N)ccc3c1C2=O
REMARK SMILES IDX 36 1 25 2 21 3 8 4 6 5 24 6 7 7 5 8 3 9 34 10 22 11 23 12
REMARK SMILES IDX 4 13 35 14 33 15 26 16 32 17 27 18 31 19 28 20 9 22 12 23
REMARK SMILES IDX 11 24 19 25 10 26 20 27 13 28 16 29 15 30 17 31 14 32 18 33
REMARK SMILES IDX 2 34 1 35 29 36 30 37
REMARK H PARENT 25 21
ROOT
ATOM      1  O   UNL     1     115.359 138.665 213.218  1.00  0.00    -0.289 OA
ATOM      2  N   UNL     1     118.289 139.198 216.672  1.00  0.00    -0.357 N 
ATOM      3  C   UNL     1     117.882 136.750 216.072  1.00  0.00     0.031 C 
ATOM      4  C   UNL     1     116.320 133.839 214.092  1.00  0.00     0.040 A 
ATOM      5  C   UNL     1     117.034 135.981 215.038  1.00  0.00    -0.023 A 
ATOM      6  C   UNL     1     117.680 138.235 215.911  1.00  0.00     0.037 A 
ATOM      7  C   UNL     1     117.073 134.572 215.012  1.00  0.00     0.031 A 
ATOM      8  C   UNL     1     116.201 136.633 214.097  1.00  0.00     0.027 A 
ATOM      9  C   UNL     1     115.509 134.496 213.175  1.00  0.00    -0.024 A 
ATOM     10  C   UNL     1     116.871 138.868 214.994  1.00  0.00     0.052 A 
ATOM     11  C   UNL     1     119.378 136.424 215.861  1.00  0.00     0.023 C 
ATOM     12  C   UNL     1     117.456 136.341 217.500  1.00  0.00     0.023 C 
ATOM     13  C   UNL     1     115.448 135.888 213.176  1.00  0.00     0.018 A 
ATOM     14  C   UNL     1     116.086 138.120 214.040  1.00  0.00     0.195 C 
ATOM     15  C   UNL     1     116.993 140.274 215.206  1.00  0.00     0.011 A 
ATOM     16  C   UNL     1     117.888 140.449 216.264  1.00  0.00     0.048 A 
ATOM     17  C   UNL     1     116.431 141.419 214.604  1.00  0.00     0.012 A 
ATOM     18  C   UNL     1     118.251 141.711 216.749  1.00  0.00     0.046 A 
ATOM     19  C   UNL     1     116.784 142.688 215.079  1.00  0.00     0.020 A 
ATOM     20  C   UNL     1     117.680 142.830 216.135  1.00  0.00     0.054 A 
ATOM     21  H   UNL     1     118.941 139.019 217.425  1.00  0.00     0.166 HD
ENDROOT
BRANCH   4  22
ATOM     22  N   UNL     1     116.396 132.441 214.108  1.00  0.00    -0.371 N 
ATOM     23  C   UNL     1     116.558 129.562 214.293  1.00  0.00     0.060 C 
ATOM     24  C   UNL     1     115.218 130.294 214.390  1.00  0.00     0.040 C 
ATOM     25  C   UNL     1     117.521 130.361 213.414  1.00  0.00     0.040 C 
ATOM     26  C   UNL     1     115.404 131.718 214.916  1.00  0.00     0.118 C 
ATOM     27  C   UNL     1     117.699 131.788 213.938  1.00  0.00     0.118 C 
BRANCH  23  28
ATOM     28  N   UNL     1     116.359 128.227 213.733  1.00  0.00    -0.296 NA
ATOM     29  O   UNL     1     116.191 126.403 211.553  1.00  0.00    -0.379 OA
ATOM     30  C   UNL     1     117.323 126.390 212.425  1.00  0.00     0.175 C 
ATOM     31  C   UNL     1     115.015 126.806 212.255  1.00  0.00     0.175 C 
ATOM     32  C   UNL     1     117.558 127.780 213.011  1.00  0.00     0.113 C 
ATOM     33  C   UNL     1     115.195 128.205 212.836  1.00  0.00     0.113 C 
ENDBRANCH  23  28
ENDBRANCH   4  22
BRANCH   9  34
ATOM     34  C   UNL     1     114.694 133.738 212.179  1.00  0.00     0.034 C 
ATOM     35  C   UNL     1     113.220 133.679 212.565  1.00  0.00     0.009 C 
ENDBRANCH   9  34
BRANCH  20  36
ATOM     36  C   UNL     1     118.023 144.137 216.601  1.00  0.00     0.099 C 
ATOM     37  N   UNL     1     118.302 145.198 216.979  1.00  0.00    -0.192 NA
ENDBRANCH  20  36
TORSDOF 4
ENDMDL
MODEL 7
REMARK VINA RESULT:    -6.256      5.914      8.344
REMARK INTER + INTRA:          -8.687
REMARK INTER:                  -7.844
REMARK INTRA:                  -0.843
REMARK UNBOUND:                -0.967
REMARK SMILES CCc1cc2c(cc1N1CCC(N3CCOCC3)CC1)C(C)(C)c1[nH]c3cc(C#N)ccc3c1C2=O
REMARK SMILES IDX 36 1 25 2 21 3 8 4 6 5 24 6 7 7 5 8 3 9 34 10 22 11 23 12
REMARK SMILES IDX 4 13 35 14 33 15 26 16 32 17 27 18 31 19 28 20 9 22 12 23
REMARK SMILES IDX 11 24 19 25 10 26 20 27 13 28 16 29 15 30 17 31 14 32 18 33
REMARK SMILES IDX 2 34 1 35 29 36 30 37
REMARK H PARENT 25 21
ROOT
ATOM      1  O   UNL     1     116.686 129.341 213.757  1.00  0.00    -0.289 OA
ATOM      2  N   UNL     1     113.008 129.691 211.085  1.00  0.00    -0.357 N 
ATOM      3  C   UNL     1     113.906 131.954 211.852  1.00  0.00     0.031 C 
ATOM      4  C   UNL     1     116.303 134.325 213.715  1.00  0.00     0.040 A 
ATOM      5  C   UNL     1     115.075 132.451 212.729  1.00  0.00    -0.023 A 
ATOM      6  C   UNL     1     113.912 130.449 211.782  1.00  0.00     0.037 A 
ATOM      7  C   UNL     1     115.258 133.834 212.929  1.00  0.00     0.031 A 
ATOM      8  C   UNL     1     115.989 131.569 213.354  1.00  0.00     0.027 A 
ATOM      9  C   UNL     1     117.191 133.444 214.321  1.00  0.00    -0.024 A 
ATOM     10  C   UNL     1     114.802 129.592 212.390  1.00  0.00     0.052 A 
ATOM     11  C   UNL     1     114.054 132.520 210.422  1.00  0.00     0.023 C 
ATOM     12  C   UNL     1     112.565 132.420 212.462  1.00  0.00     0.023 C 
ATOM     13  C   UNL     1     117.037 132.071 214.142  1.00  0.00     0.018 A 
ATOM     14  C   UNL     1     115.885 130.087 213.208  1.00  0.00     0.195 C 
ATOM     15  C   UNL     1     114.425 128.259 212.048  1.00  0.00     0.011 A 
ATOM     16  C   UNL     1     113.297 128.354 211.229  1.00  0.00     0.048 A 
ATOM     17  C   UNL     1     114.929 126.977 212.352  1.00  0.00     0.012 A 
ATOM     18  C   UNL     1     112.649 127.232 210.699  1.00  0.00     0.046 A 
ATOM     19  C   UNL     1     114.291 125.846 211.829  1.00  0.00     0.020 A 
ATOM     20  C   UNL     1     113.168 125.974 211.015  1.00  0.00     0.054 A 
ATOM     21  H   UNL     1     112.238 130.058 210.540  1.00  0.00     0.166 HD
ENDROOT
BRANCH   4  22
ATOM     22  N   UNL     1     116.441 135.708 213.881  1.00  0.00    -0.371 N 
ATOM     23  C   UNL     1     116.575 138.576 214.201  1.00  0.00     0.060 C 
ATOM     24  C   UNL     1     116.223 137.659 215.374  1.00  0.00     0.040 C 
ATOM     25  C   UNL     1     117.489 137.838 213.222  1.00  0.00     0.040 C 
ATOM     26  C   UNL     1     115.584 136.358 214.884  1.00  0.00     0.118 C 
ATOM     27  C   UNL     1     116.851 136.534 212.741  1.00  0.00     0.118 C 
BRANCH  23  28
ATOM     28  N   UNL     1     117.237 139.783 214.692  1.00  0.00    -0.296 NA
ATOM     29  O   UNL     1     117.329 142.583 215.200  1.00  0.00    -0.379 OA
ATOM     30  C   UNL     1     117.172 141.655 216.275  1.00  0.00     0.175 C 
ATOM     31  C   UNL     1     118.102 142.011 214.145  1.00  0.00     0.175 C 
ATOM     32  C   UNL     1     116.469 140.392 215.787  1.00  0.00     0.113 C 
ATOM     33  C   UNL     1     117.420 140.757 213.606  1.00  0.00     0.113 C 
ENDBRANCH  23  28
ENDBRANCH   4  22
BRANCH   9  34
ATOM     34  C   UNL     1     118.319 133.940 215.166  1.00  0.00     0.034 C 
ATOM     35  C   UNL     1     119.624 133.209 214.873  1.00  0.00     0.009 C 
ENDBRANCH   9  34
BRANCH  20  36
ATOM     36  C   UNL     1     112.536 124.802 210.494  1.00  0.00     0.099 C 
ATOM     37  N   UNL     1     112.022 123.852 210.071  1.00  0.00    -0.192 NA
ENDBRANCH  20  36
TORSDOF 4
ENDMDL
MODEL 8
REMARK VINA RESULT:    -6.198      4.898      7.090
REMARK INTER + INTRA:          -8.614
REMARK INTER:                  -8.238
REMARK INTRA:                  -0.376
REMARK UNBOUND:                -0.967
REMARK SMILES CCc1cc2c(cc1N1CCC(N3CCOCC3)CC1)C(C)(C)c1[nH]c3cc(C#N)ccc3c1C2=O
REMARK SMILES IDX 36 1 25 2 21 3 8 4 6 5 24 6 7 7 5 8 3 9 34 10 22 11 23 12
REMARK SMILES IDX 4 13 35 14 33 15 26 16 32 17 27 18 31 19 28 20 9 22 12 23
REMARK SMILES IDX 11 24 19 25 10 26 20 27 13 28 16 29 15 30 17 31 14 32 18 33
REMARK SMILES IDX 2 34 1 35 29 36 30 37
REMARK H PARENT 25 21
ROOT
ATOM      1  O   UNL     1     116.238 131.461 213.954  1.00  0.00    -0.289 OA
ATOM      2  N   UNL     1     113.164 132.891 210.903  1.00  0.00    -0.357 N 
ATOM      3  C   UNL     1     114.348 134.807 212.106  1.00  0.00     0.031 C 
ATOM      4  C   UNL     1     116.829 136.383 214.595  1.00  0.00     0.040 A 
ATOM      5  C   UNL     1     115.436 134.940 213.191  1.00  0.00    -0.023 A 
ATOM      6  C   UNL     1     114.075 133.353 211.817  1.00  0.00     0.037 A 
ATOM      7  C   UNL     1     115.847 136.220 213.615  1.00  0.00     0.031 A 
ATOM      8  C   UNL     1     116.054 133.817 213.795  1.00  0.00     0.027 A 
ATOM      9  C   UNL     1     117.425 135.269 215.175  1.00  0.00    -0.024 A 
ATOM     10  C   UNL     1     114.677 132.263 212.404  1.00  0.00     0.052 A 
ATOM     11  C   UNL     1     114.826 135.493 210.806  1.00  0.00     0.023 C 
ATOM     12  C   UNL     1     113.042 135.471 212.596  1.00  0.00     0.023 C 
ATOM     13  C   UNL     1     117.040 133.991 214.779  1.00  0.00     0.018 A 
ATOM     14  C   UNL     1     115.692 132.419 213.420  1.00  0.00     0.195 C 
ATOM     15  C   UNL     1     114.110 131.089 211.823  1.00  0.00     0.011 A 
ATOM     16  C   UNL     1     113.165 131.515 210.887  1.00  0.00     0.048 A 
ATOM     17  C   UNL     1     114.304 129.703 211.999  1.00  0.00     0.012 A 
ATOM     18  C   UNL     1     112.406 130.626 210.117  1.00  0.00     0.046 A 
ATOM     19  C   UNL     1     113.552 128.802 211.236  1.00  0.00     0.020 A 
ATOM     20  C   UNL     1     112.618 129.258 210.310  1.00  0.00     0.054 A 
ATOM     21  H   UNL     1     112.576 133.473 210.322  1.00  0.00     0.166 HD
ENDROOT
BRANCH   4  22
ATOM     22  N   UNL     1     117.201 137.676 214.979  1.00  0.00    -0.371 N 
ATOM     23  C   UNL     1     118.104 140.290 215.818  1.00  0.00     0.060 C 
ATOM     24  C   UNL     1     118.445 139.734 214.434  1.00  0.00     0.040 C 
ATOM     25  C   UNL     1     116.766 139.717 216.291  1.00  0.00     0.040 C 
ATOM     26  C   UNL     1     118.464 138.205 214.443  1.00  0.00     0.118 C 
ATOM     27  C   UNL     1     116.786 138.187 216.290  1.00  0.00     0.118 C 
BRANCH  23  28
ATOM     28  N   UNL     1     118.034 141.749 215.768  1.00  0.00    -0.296 NA
ATOM     29  O   UNL     1     116.657 144.195 215.294  1.00  0.00    -0.379 OA
ATOM     30  C   UNL     1     116.958 143.778 216.628  1.00  0.00     0.175 C 
ATOM     31  C   UNL     1     117.653 143.734 214.382  1.00  0.00     0.175 C 
ATOM     32  C   UNL     1     117.022 142.256 216.706  1.00  0.00     0.113 C 
ATOM     33  C   UNL     1     117.732 142.211 214.406  1.00  0.00     0.113 C 
ENDBRANCH  23  28
ENDBRANCH   4  22
BRANCH   9  34
ATOM     34  C   UNL     1     118.478 135.414 216.224  1.00  0.00     0.034 C 
ATOM     35  C   UNL     1     119.477 134.261 216.202  1.00  0.00     0.009 C 
ENDBRANCH   9  34
BRANCH  20  36
ATOM     36  C   UNL     1     111.863 128.316 209.544  1.00  0.00     0.099 C 
ATOM     37  N   UNL     1     111.250 127.551 208.922  1.00  0.00    -0.192 NA
ENDBRANCH  20  36
TORSDOF 4
ENDMDL
MODEL 9
REMARK VINA RESULT:    -6.007      5.196     12.686
REMARK INTER + INTRA:          -8.379
REMARK INTER:                  -7.477
REMARK INTRA:                  -0.902
REMARK UNBOUND:                -0.967
REMARK SMILES CCc1cc2c(cc1N1CCC(N3CCOCC3)CC1)C(C)(C)c1[nH]c3cc(C#N)ccc3c1C2=O
REMARK SMILES IDX 36 1 25 2 21 3 8 4 6 5 24 6 7 7 5 8 3 9 34 10 22 11 23 12
REMARK SMILES IDX 4 13 35 14 33 15 26 16 32 17 27 18 31 19 28 20 9 22 12 23
REMARK SMILES IDX 11 24 19 25 10 26 20 27 13 28 16 29 15 30 17 31 14 32 18 33
REMARK SMILES IDX 2 34 1 35 29 36 30 37
REMARK H PARENT 25 21
ROOT
ATOM      1  O   UNL     1     115.114 136.086 213.619  1.00  0.00    -0.289 OA
ATOM      2  N   UNL     1     118.613 136.700 216.479  1.00  0.00    -0.357 N 
ATOM      3  C   UNL     1     118.240 134.251 215.864  1.00  0.00     0.031 C 
ATOM      4  C   UNL     1     116.499 131.306 214.093  1.00  0.00     0.040 A 
ATOM      5  C   UNL     1     117.256 133.460 214.977  1.00  0.00    -0.023 A 
ATOM      6  C   UNL     1     117.926 135.723 215.806  1.00  0.00     0.037 A 
ATOM      7  C   UNL     1     117.370 132.058 214.885  1.00  0.00     0.031 A 
ATOM      8  C   UNL     1     116.223 134.086 214.238  1.00  0.00     0.027 A 
ATOM      9  C   UNL     1     115.492 131.938 213.374  1.00  0.00    -0.024 A 
ATOM     10  C   UNL     1     116.922 136.330 215.086  1.00  0.00     0.052 A 
ATOM     11  C   UNL     1     119.684 134.028 215.361  1.00  0.00     0.023 C 
ATOM     12  C   UNL     1     118.118 133.772 217.329  1.00  0.00     0.023 C 
ATOM     13  C   UNL     1     115.352 133.322 213.444  1.00  0.00     0.018 A 
ATOM     14  C   UNL     1     116.014 135.564 214.266  1.00  0.00     0.195 C 
ATOM     15  C   UNL     1     117.001 137.734 215.330  1.00  0.00     0.011 A 
ATOM     16  C   UNL     1     118.070 137.935 216.206  1.00  0.00     0.048 A 
ATOM     17  C   UNL     1     116.270 138.859 214.893  1.00  0.00     0.012 A 
ATOM     18  C   UNL     1     118.445 139.202 216.667  1.00  0.00     0.046 A 
ATOM     19  C   UNL     1     116.633 140.133 215.346  1.00  0.00     0.020 A 
ATOM     20  C   UNL     1     117.705 140.300 216.219  1.00  0.00     0.054 A 
ATOM     21  H   UNL     1     119.405 136.541 217.087  1.00  0.00     0.166 HD
ENDROOT
BRANCH   4  22
ATOM     22  N   UNL     1     116.657 129.917 214.036  1.00  0.00    -0.371 N 
ATOM     23  C   UNL     1     117.048 127.054 214.055  1.00  0.00     0.060 C 
ATOM     24  C   UNL     1     115.821 127.696 214.706  1.00  0.00     0.040 C 
ATOM     25  C   UNL     1     117.525 127.918 212.886  1.00  0.00     0.040 C 
ATOM     26  C   UNL     1     116.119 129.128 215.154  1.00  0.00     0.118 C 
ATOM     27  C   UNL     1     117.815 129.351 213.336  1.00  0.00     0.118 C 
BRANCH  23  28
ATOM     28  N   UNL     1     116.718 125.711 213.583  1.00  0.00    -0.296 NA
ATOM     29  O   UNL     1     115.273 123.263 213.742  1.00  0.00    -0.379 OA
ATOM     30  C   UNL     1     114.980 124.214 212.716  1.00  0.00     0.175 C 
ATOM     31  C   UNL     1     116.653 123.316 214.104  1.00  0.00     0.175 C 
ATOM     32  C   UNL     1     115.303 125.626 213.193  1.00  0.00     0.113 C 
ATOM     33  C   UNL     1     117.015 124.707 214.615  1.00  0.00     0.113 C 
ENDBRANCH  23  28
ENDBRANCH   4  22
BRANCH   9  34
ATOM     34  C   UNL     1     114.547 131.160 212.518  1.00  0.00     0.034 C 
ATOM     35  C   UNL     1     114.727 131.464 211.035  1.00  0.00     0.009 C 
ENDBRANCH   9  34
BRANCH  20  36
ATOM     36  C   UNL     1     118.055 141.612 216.667  1.00  0.00     0.099 C 
ATOM     37  N   UNL     1     118.339 142.677 217.030  1.00  0.00    -0.192 NA
ENDBRANCH  20  36
TORSDOF 4
ENDMDL
