MODEL 1
REMARK VINA RESULT:    -5.582      0.000      0.000
REMARK INTER + INTRA:          -8.411
REMARK INTER:                  -7.866
REMARK INTRA:                  -0.545
REMARK UNBOUND:                -0.545
REMARK SMILES CCN1CCN(Cc2ccc(Nc3ncc(F)c(-c4cc(F)c5nc(C)n(C(C)C)c5c4)n3)nc2)CC1
REMARK SMILES IDX 34 1 8 2 9 3 35 4 10 5 11 6 12 7 13 9 18 10 33 11 16 12
REMARK SMILES IDX 15 13 14 14 17 15 19 16 21 17 23 18 20 19 24 20 31 21 25 22
REMARK SMILES IDX 27 23 32 24 22 25 26 26 28 27 29 28 30 29 7 30 6 31 5 32
REMARK SMILES IDX 36 33 4 34 37 35 3 36 2 37 1 38
REMARK H PARENT 12 8
ROOT
ATOM      1  N   UNL     1     -17.391  28.258  13.868  1.00  0.00    -0.239 NA
ATOM      2  C   UNL     1     -18.675  28.234  11.819  1.00  0.00    -0.015 A 
ATOM      3  C   UNL     1     -19.831  28.538  12.531  1.00  0.00     0.010 A 
ATOM      4  C   UNL     1     -17.491  28.106  12.528  1.00  0.00     0.118 A 
ATOM      5  C   UNL     1     -19.768  28.700  13.912  1.00  0.00     0.047 A 
ATOM      6  C   UNL     1     -18.535  28.551  14.526  1.00  0.00     0.132 A 
ENDROOT
BRANCH   6   7
ATOM      7  N   UNL     1     -18.487  28.718  15.933  1.00  0.00    -0.309 N 
ATOM      8  H   UNL     1     -18.361  29.677  16.242  1.00  0.00     0.171 HD
BRANCH   7   9
ATOM      9  C   UNL     1     -18.581  27.809  16.998  1.00  0.00     0.229 A 
ATOM     10  C   UNL     1     -17.987  27.209  19.110  1.00  0.00     0.112 A 
ATOM     11  N   UNL     1     -17.875  28.104  18.106  1.00  0.00    -0.210 NA
ATOM     12  C   UNL     1     -18.759  26.067  19.034  1.00  0.00     0.167 A 
ATOM     13  C   UNL     1     -19.432  25.879  17.845  1.00  0.00     0.156 A 
ATOM     14  N   UNL     1     -19.365  26.732  16.802  1.00  0.00    -0.218 NA
ATOM     15  F   UNL     1     -18.856  25.192  20.040  1.00  0.00    -0.203 F 
BRANCH  10  16
ATOM     16  C   UNL     1     -17.231  27.526  20.296  1.00  0.00     0.008 A 
ATOM     17  C   UNL     1     -17.198  28.271  22.614  1.00  0.00     0.151 A 
ATOM     18  C   UNL     1     -15.799  28.152  22.608  1.00  0.00     0.124 A 
ATOM     19  C   UNL     1     -17.902  27.953  21.445  1.00  0.00     0.052 A 
ATOM     20  N   UNL     1     -14.886  28.398  23.609  1.00  0.00    -0.230 NA
ATOM     21  C   UNL     1     -15.159  27.725  21.448  1.00  0.00     0.072 A 
ATOM     22  C   UNL     1     -13.715  28.129  23.076  1.00  0.00     0.107 A 
ATOM     23  N   UNL     1     -13.827  27.719  21.776  1.00  0.00    -0.326 N 
ATOM     24  C   UNL     1     -15.838  27.402  20.273  1.00  0.00     0.039 A 
ATOM     25  F   UNL     1     -17.855  28.677  23.708  1.00  0.00    -0.205 F 
ATOM     26  C   UNL     1     -12.409  28.238  23.757  1.00  0.00     0.088 C 
BRANCH  23  27
ATOM     27  C   UNL     1     -12.738  27.346  20.901  1.00  0.00     0.083 C 
ATOM     28  C   UNL     1     -12.067  26.049  21.359  1.00  0.00     0.031 C 
ATOM     29  C   UNL     1     -11.711  28.474  20.767  1.00  0.00     0.031 C 
ENDBRANCH  23  27
ENDBRANCH  10  16
ENDBRANCH   7   9
ENDBRANCH   6   7
BRANCH   2  30
ATOM     30  C   UNL     1     -18.709  28.050  10.325  1.00  0.00     0.121 C 
BRANCH  30  31
ATOM     31  N   UNL     1     -17.394  27.707   9.789  1.00  0.00    -0.296 NA
ATOM     32  C   UNL     1     -17.387  26.335   9.266  1.00  0.00     0.100 C 
ATOM     33  C   UNL     1     -16.993  28.657   8.744  1.00  0.00     0.100 C 
ATOM     34  C   UNL     1     -16.009  25.974   8.700  1.00  0.00     0.100 C 
ATOM     35  C   UNL     1     -15.616  28.296   8.179  1.00  0.00     0.100 C 
ATOM     36  N   UNL     1     -15.609  26.924   7.655  1.00  0.00    -0.301 NA
BRANCH  36  37
ATOM     37  C   UNL     1     -14.293  26.580   7.116  1.00  0.00     0.081 C 
ATOM     38  C   UNL     1     -13.216  27.491   7.680  1.00  0.00     0.021 C 
ENDBRANCH  36  37
ENDBRANCH  30  31
ENDBRANCH   2  30
TORSDOF 7
ENDMDL
MODEL 2
REMARK VINA RESULT:    -4.798      3.508      9.689
REMARK INTER + INTRA:          -7.306
REMARK INTER:                  -6.927
REMARK INTRA:                  -0.378
REMARK UNBOUND:                -0.545
REMARK SMILES CCN1CCN(Cc2ccc(Nc3ncc(F)c(-c4cc(F)c5nc(C)n(C(C)C)c5c4)n3)nc2)CC1
REMARK SMILES IDX 34 1 8 2 9 3 35 4 10 5 11 6 12 7 13 9 18 10 33 11 16 12
REMARK SMILES IDX 15 13 14 14 17 15 19 16 21 17 23 18 20 19 24 20 31 21 25 22
REMARK SMILES IDX 27 23 32 24 22 25 26 26 28 27 29 28 30 29 7 30 6 31 5 32
REMARK SMILES IDX 36 33 4 34 37 35 3 36 2 37 1 38
REMARK H PARENT 12 8
ROOT
ATOM      1  N   UNL     1     -18.074  28.597  16.904  1.00  0.00    -0.239 NA
ATOM      2  C   UNL     1     -18.041  27.407  19.008  1.00  0.00    -0.015 A 
ATOM      3  C   UNL     1     -19.128  26.640  18.600  1.00  0.00     0.010 A 
ATOM      4  C   UNL     1     -17.556  28.363  18.131  1.00  0.00     0.118 A 
ATOM      5  C   UNL     1     -19.689  26.853  17.345  1.00  0.00     0.047 A 
ATOM      6  C   UNL     1     -19.130  27.834  16.543  1.00  0.00     0.132 A 
ENDROOT
BRANCH   6   7
ATOM      7  N   UNL     1     -19.714  28.039  15.267  1.00  0.00    -0.309 N 
ATOM      8  H   UNL     1     -20.680  28.348  15.287  1.00  0.00     0.171 HD
BRANCH   7   9
ATOM      9  C   UNL     1     -19.213  27.896  13.964  1.00  0.00     0.229 A 
ATOM     10  C   UNL     1     -17.587  27.132  12.570  1.00  0.00     0.112 A 
ATOM     11  N   UNL     1     -18.038  27.250  13.836  1.00  0.00    -0.210 NA
ATOM     12  C   UNL     1     -18.257  27.626  11.469  1.00  0.00     0.167 A 
ATOM     13  C   UNL     1     -19.449  28.268  11.733  1.00  0.00     0.156 A 
ATOM     14  N   UNL     1     -19.959  28.422  12.973  1.00  0.00    -0.218 NA
ATOM     15  F   UNL     1     -17.791  27.498  10.222  1.00  0.00    -0.203 F 
BRANCH  10  16
ATOM     16  C   UNL     1     -16.328  26.440  12.434  1.00  0.00     0.008 A 
ATOM     17  C   UNL     1     -15.091  24.344  12.402  1.00  0.00     0.151 A 
ATOM     18  C   UNL     1     -13.910  25.071  12.182  1.00  0.00     0.124 A 
ATOM     19  C   UNL     1     -16.296  25.047  12.526  1.00  0.00     0.052 A 
ATOM     20  N   UNL     1     -12.615  24.629  12.026  1.00  0.00    -0.230 NA
ATOM     21  C   UNL     1     -13.974  26.458  12.096  1.00  0.00     0.072 A 
ATOM     22  C   UNL     1     -11.903  25.719  11.849  1.00  0.00     0.107 A 
ATOM     23  N   UNL     1     -12.675  26.846  11.882  1.00  0.00    -0.326 N 
ATOM     24  C   UNL     1     -15.161  27.180  12.216  1.00  0.00     0.039 A 
ATOM     25  F   UNL     1     -15.076  23.007  12.491  1.00  0.00    -0.205 F 
ATOM     26  C   UNL     1     -10.442  25.772  11.634  1.00  0.00     0.088 C 
BRANCH  23  27
ATOM     27  C   UNL     1     -12.211  28.206  11.721  1.00  0.00     0.083 C 
ATOM     28  C   UNL     1     -12.001  28.559  10.247  1.00  0.00     0.031 C 
ATOM     29  C   UNL     1     -10.937  28.465  12.531  1.00  0.00     0.031 C 
ENDBRANCH  23  27
ENDBRANCH  10  16
ENDBRANCH   7   9
ENDBRANCH   6   7
BRANCH   2  30
ATOM     30  C   UNL     1     -17.412  27.204  20.361  1.00  0.00     0.121 C 
BRANCH  30  31
ATOM     31  N   UNL     1     -15.953  27.256  20.295  1.00  0.00    -0.296 NA
ATOM     32  C   UNL     1     -15.454  28.537  20.810  1.00  0.00     0.100 C 
ATOM     33  C   UNL     1     -15.357  26.138  21.038  1.00  0.00     0.100 C 
ATOM     34  C   UNL     1     -13.923  28.593  20.746  1.00  0.00     0.100 C 
ATOM     35  C   UNL     1     -13.828  26.193  20.973  1.00  0.00     0.100 C 
ATOM     36  N   UNL     1     -13.329  27.475  21.489  1.00  0.00    -0.301 NA
BRANCH  36  37
ATOM     37  C   UNL     1     -11.869  27.527  21.425  1.00  0.00     0.081 C 
ATOM     38  C   UNL     1     -11.330  28.719  22.198  1.00  0.00     0.021 C 
ENDBRANCH  36  37
ENDBRANCH  30  31
ENDBRANCH   2  30
TORSDOF 7
ENDMDL
MODEL 3
REMARK VINA RESULT:    -4.299      3.212     11.717
REMARK INTER + INTRA:          -6.602
REMARK INTER:                  -6.482
REMARK INTRA:                  -0.120
REMARK UNBOUND:                -0.545
REMARK SMILES CCN1CCN(Cc2ccc(Nc3ncc(F)c(-c4cc(F)c5nc(C)n(C(C)C)c5c4)n3)nc2)CC1
REMARK SMILES IDX 34 1 8 2 9 3 35 4 10 5 11 6 12 7 13 9 18 10 33 11 16 12
REMARK SMILES IDX 15 13 14 14 17 15 19 16 21 17 23 18 20 19 24 20 31 21 25 22
REMARK SMILES IDX 27 23 32 24 22 25 26 26 28 27 29 28 30 29 7 30 6 31 5 32
REMARK SMILES IDX 36 33 4 34 37 35 3 36 2 37 1 38
REMARK H PARENT 12 8
ROOT
ATOM      1  N   UNL     1     -17.577  28.053  16.335  1.00  0.00    -0.239 NA
ATOM      2  C   UNL     1     -18.496  27.358  18.461  1.00  0.00    -0.015 A 
ATOM      3  C   UNL     1     -19.411  26.539  17.806  1.00  0.00     0.010 A 
ATOM      4  C   UNL     1     -17.608  28.088  17.686  1.00  0.00     0.118 A 
ATOM      5  C   UNL     1     -19.410  26.478  16.417  1.00  0.00     0.047 A 
ATOM      6  C   UNL     1     -18.481  27.247  15.734  1.00  0.00     0.132 A 
ENDROOT
BRANCH   6   7
ATOM      7  N   UNL     1     -18.494  27.174  14.319  1.00  0.00    -0.309 N 
ATOM      8  H   UNL     1     -19.313  27.584  13.880  1.00  0.00     0.171 HD
BRANCH   7   9
ATOM      9  C   UNL     1     -17.587  26.640  13.390  1.00  0.00     0.229 A 
ATOM     10  C   UNL     1     -16.750  26.608  11.276  1.00  0.00     0.112 A 
ATOM     11  N   UNL     1     -17.634  27.144  12.142  1.00  0.00    -0.210 NA
ATOM     12  C   UNL     1     -15.853  25.615  11.615  1.00  0.00     0.167 A 
ATOM     13  C   UNL     1     -15.905  25.183  12.924  1.00  0.00     0.156 A 
ATOM     14  N   UNL     1     -16.763  25.675  13.842  1.00  0.00    -0.218 NA
ATOM     15  F   UNL     1     -14.984  25.096  10.740  1.00  0.00    -0.203 F 
BRANCH  10  16
ATOM     16  C   UNL     1     -16.801  27.148   9.940  1.00  0.00     0.008 A 
ATOM     17  C   UNL     1     -18.089  28.202   8.163  1.00  0.00     0.151 A 
ATOM     18  C   UNL     1     -16.939  28.195   7.357  1.00  0.00     0.124 A 
ATOM     19  C   UNL     1     -18.003  27.673   9.457  1.00  0.00     0.052 A 
ATOM     20  N   UNL     1     -16.758  28.648   6.069  1.00  0.00    -0.230 NA
ATOM     21  C   UNL     1     -15.757  27.665   7.866  1.00  0.00     0.072 A 
ATOM     22  C   UNL     1     -15.496  28.402   5.795  1.00  0.00     0.107 A 
ATOM     23  N   UNL     1     -14.851  27.811   6.846  1.00  0.00    -0.326 N 
ATOM     24  C   UNL     1     -15.647  27.133   9.150  1.00  0.00     0.039 A 
ATOM     25  F   UNL     1     -19.247  28.703   7.714  1.00  0.00    -0.205 F 
ATOM     26  C   UNL     1     -14.812  28.709   4.523  1.00  0.00     0.088 C 
BRANCH  23  27
ATOM     27  C   UNL     1     -13.463  27.409   6.879  1.00  0.00     0.083 C 
ATOM     28  C   UNL     1     -13.310  25.895   6.711  1.00  0.00     0.031 C 
ATOM     29  C   UNL     1     -12.768  27.889   8.157  1.00  0.00     0.031 C 
ENDBRANCH  23  27
ENDBRANCH  10  16
ENDBRANCH   7   9
ENDBRANCH   6   7
BRANCH   2  30
ATOM     30  C   UNL     1     -18.472  27.449  19.963  1.00  0.00     0.121 C 
BRANCH  30  31
ATOM     31  N   UNL     1     -17.174  27.899  20.460  1.00  0.00    -0.296 NA
ATOM     32  C   UNL     1     -17.232  28.166  21.902  1.00  0.00     0.100 C 
ATOM     33  C   UNL     1     -16.130  26.911  20.163  1.00  0.00     0.100 C 
ATOM     34  C   UNL     1     -15.871  28.636  22.427  1.00  0.00     0.100 C 
ATOM     35  C   UNL     1     -14.769  27.381  20.687  1.00  0.00     0.100 C 
ATOM     36  N   UNL     1     -14.828  27.647  22.130  1.00  0.00    -0.301 NA
BRANCH  36  37
ATOM     37  C   UNL     1     -13.529  28.097  22.628  1.00  0.00     0.081 C 
ATOM     38  C   UNL     1     -12.991  27.151  23.688  1.00  0.00     0.021 C 
ENDBRANCH  36  37
ENDBRANCH  30  31
ENDBRANCH   2  30
TORSDOF 7
ENDMDL
MODEL 4
REMARK VINA RESULT:    -3.996      4.405     12.564
REMARK INTER + INTRA:          -6.175
REMARK INTER:                  -6.576
REMARK INTRA:                   0.400
REMARK UNBOUND:                -0.545
REMARK SMILES CCN1CCN(Cc2ccc(Nc3ncc(F)c(-c4cc(F)c5nc(C)n(C(C)C)c5c4)n3)nc2)CC1
REMARK SMILES IDX 34 1 8 2 9 3 35 4 10 5 11 6 12 7 13 9 18 10 33 11 16 12
REMARK SMILES IDX 15 13 14 14 17 15 19 16 21 17 23 18 20 19 24 20 31 21 25 22
REMARK SMILES IDX 27 23 32 24 22 25 26 26 28 27 29 28 30 29 7 30 6 31 5 32
REMARK SMILES IDX 36 33 4 34 37 35 3 36 2 37 1 38
REMARK H PARENT 12 8
ROOT
ATOM      1  N   UNL     1     -17.886  27.482  14.368  1.00  0.00    -0.239 NA
ATOM      2  C   UNL     1     -19.157  27.346  16.420  1.00  0.00    -0.015 A 
ATOM      3  C   UNL     1     -20.162  28.128  15.858  1.00  0.00     0.010 A 
ATOM      4  C   UNL     1     -18.050  27.054  15.639  1.00  0.00     0.118 A 
ATOM      5  C   UNL     1     -20.028  28.589  14.553  1.00  0.00     0.047 A 
ATOM      6  C   UNL     1     -18.881  28.241  13.856  1.00  0.00     0.132 A 
ENDROOT
BRANCH   6   7
ATOM      7  N   UNL     1     -18.760  28.718  12.528  1.00  0.00    -0.309 N 
ATOM      8  H   UNL     1     -19.333  29.528  12.313  1.00  0.00     0.171 HD
BRANCH   7   9
ATOM      9  C   UNL     1     -17.994  28.287  11.433  1.00  0.00     0.229 A 
ATOM     10  C   UNL     1     -17.906  27.406   9.339  1.00  0.00     0.112 A 
ATOM     11  N   UNL     1     -18.673  27.811  10.372  1.00  0.00    -0.210 NA
ATOM     12  C   UNL     1     -16.527  27.461   9.341  1.00  0.00     0.167 A 
ATOM     13  C   UNL     1     -15.951  27.969  10.487  1.00  0.00     0.156 A 
ATOM     14  N   UNL     1     -16.657  28.393  11.556  1.00  0.00    -0.218 NA
ATOM     15  F   UNL     1     -15.785  27.053   8.306  1.00  0.00    -0.203 F 
BRANCH  10  16
ATOM     16  C   UNL     1     -18.634  26.895   8.203  1.00  0.00     0.008 A 
ATOM     17  C   UNL     1     -19.927  27.328   6.186  1.00  0.00     0.151 A 
ATOM     18  C   UNL     1     -20.054  25.942   5.998  1.00  0.00     0.124 A 
ATOM     19  C   UNL     1     -19.211  27.789   7.298  1.00  0.00     0.052 A 
ATOM     20  N   UNL     1     -20.696  25.239   5.003  1.00  0.00    -0.230 NA
ATOM     21  C   UNL     1     -19.469  25.076   6.917  1.00  0.00     0.072 A 
ATOM     22  C   UNL     1     -20.508  23.973   5.304  1.00  0.00     0.107 A 
ATOM     23  N   UNL     1     -19.775  23.823   6.448  1.00  0.00    -0.326 N 
ATOM     24  C   UNL     1     -18.751  25.512   8.031  1.00  0.00     0.039 A 
ATOM     25  F   UNL     1     -20.473  28.197   5.326  1.00  0.00    -0.205 F 
ATOM     26  C   UNL     1     -21.008  22.818   4.533  1.00  0.00     0.088 C 
BRANCH  23  27
ATOM     27  C   UNL     1     -19.390  22.570   7.058  1.00  0.00     0.083 C 
ATOM     28  C   UNL     1     -18.651  21.666   6.069  1.00  0.00     0.031 C 
ATOM     29  C   UNL     1     -20.594  21.846   7.666  1.00  0.00     0.031 C 
ENDBRANCH  23  27
ENDBRANCH  10  16
ENDBRANCH   7   9
ENDBRANCH   6   7
BRANCH   2  30
ATOM     30  C   UNL     1     -19.270  26.834  17.831  1.00  0.00     0.121 C 
BRANCH  30  31
ATOM     31  N   UNL     1     -18.419  27.584  18.751  1.00  0.00    -0.296 NA
ATOM     32  C   UNL     1     -18.218  26.839  20.000  1.00  0.00     0.100 C 
ATOM     33  C   UNL     1     -17.127  27.899  18.129  1.00  0.00     0.100 C 
ATOM     34  C   UNL     1     -17.323  27.623  20.967  1.00  0.00     0.100 C 
ATOM     35  C   UNL     1     -16.233  28.683  19.094  1.00  0.00     0.100 C 
ATOM     36  N   UNL     1     -16.031  27.936  20.343  1.00  0.00    -0.301 NA
BRANCH  36  37
ATOM     37  C   UNL     1     -15.179  28.686  21.265  1.00  0.00     0.081 C 
ATOM     38  C   UNL     1     -14.056  27.816  21.803  1.00  0.00     0.021 C 
ENDBRANCH  36  37
ENDBRANCH  30  31
ENDBRANCH   2  30
TORSDOF 7
ENDMDL
MODEL 5
REMARK VINA RESULT:    -3.901      3.448     11.954
REMARK INTER + INTRA:          -6.043
REMARK INTER:                  -6.011
REMARK INTRA:                  -0.031
REMARK UNBOUND:                -0.545
REMARK SMILES CCN1CCN(Cc2ccc(Nc3ncc(F)c(-c4cc(F)c5nc(C)n(C(C)C)c5c4)n3)nc2)CC1
REMARK SMILES IDX 34 1 8 2 9 3 35 4 10 5 11 6 12 7 13 9 18 10 33 11 16 12
REMARK SMILES IDX 15 13 14 14 17 15 19 16 21 17 23 18 20 19 24 20 31 21 25 22
REMARK SMILES IDX 27 23 32 24 22 25 26 26 28 27 29 28 30 29 7 30 6 31 5 32
REMARK SMILES IDX 36 33 4 34 37 35 3 36 2 37 1 38
REMARK H PARENT 12 8
ROOT
ATOM      1  N   UNL     1     -17.375  27.852  16.271  1.00  0.00    -0.239 NA
ATOM      2  C   UNL     1     -18.559  27.436  18.337  1.00  0.00    -0.015 A 
ATOM      3  C   UNL     1     -19.575  26.796  17.635  1.00  0.00     0.010 A 
ATOM      4  C   UNL     1     -17.490  27.942  17.615  1.00  0.00     0.118 A 
ATOM      5  C   UNL     1     -19.493  26.685  16.251  1.00  0.00     0.047 A 
ATOM      6  C   UNL     1     -18.382  27.225  15.622  1.00  0.00     0.132 A 
ENDROOT
BRANCH   6   7
ATOM      7  N   UNL     1     -18.313  27.104  14.212  1.00  0.00    -0.309 N 
ATOM      8  H   UNL     1     -19.127  27.452  13.715  1.00  0.00     0.171 HD
BRANCH   7   9
ATOM      9  C   UNL     1     -17.328  26.592  13.353  1.00  0.00     0.229 A 
ATOM     10  C   UNL     1     -16.333  26.586  11.308  1.00  0.00     0.112 A 
ATOM     11  N   UNL     1     -17.291  27.101  12.106  1.00  0.00    -0.210 NA
ATOM     12  C   UNL     1     -15.444  25.609  11.710  1.00  0.00     0.167 A 
ATOM     13  C   UNL     1     -15.587  25.171  13.010  1.00  0.00     0.156 A 
ATOM     14  N   UNL     1     -16.521  25.642  13.862  1.00  0.00    -0.218 NA
ATOM     15  F   UNL     1     -14.502  25.112  10.902  1.00  0.00    -0.203 F 
BRANCH  10  16
ATOM     16  C   UNL     1     -16.294  27.131   9.973  1.00  0.00     0.008 A 
ATOM     17  C   UNL     1     -15.028  28.208   8.194  1.00  0.00     0.151 A 
ATOM     18  C   UNL     1     -16.184  28.200   7.397  1.00  0.00     0.124 A 
ATOM     19  C   UNL     1     -15.100  27.669   9.484  1.00  0.00     0.052 A 
ATOM     20  N   UNL     1     -16.378  28.661   6.114  1.00  0.00    -0.230 NA
ATOM     21  C   UNL     1     -17.359  27.659   7.912  1.00  0.00     0.072 A 
ATOM     22  C   UNL     1     -17.641  28.408   5.849  1.00  0.00     0.107 A 
ATOM     23  N   UNL     1     -18.274  27.805   6.900  1.00  0.00    -0.326 N 
ATOM     24  C   UNL     1     -17.455  27.115   9.193  1.00  0.00     0.039 A 
ATOM     25  F   UNL     1     -13.876  28.718   7.739  1.00  0.00    -0.205 F 
ATOM     26  C   UNL     1     -18.337  28.718   4.584  1.00  0.00     0.088 C 
BRANCH  23  27
ATOM     27  C   UNL     1     -19.659  27.394   6.941  1.00  0.00     0.083 C 
ATOM     28  C   UNL     1     -20.456  28.203   7.967  1.00  0.00     0.031 C 
ATOM     29  C   UNL     1     -19.793  25.892   7.208  1.00  0.00     0.031 C 
ENDBRANCH  23  27
ENDBRANCH  10  16
ENDBRANCH   7   9
ENDBRANCH   6   7
BRANCH   2  30
ATOM     30  C   UNL     1     -18.619  27.575  19.835  1.00  0.00     0.121 C 
BRANCH  30  31
ATOM     31  N   UNL     1     -17.349  28.037  20.390  1.00  0.00    -0.296 NA
ATOM     32  C   UNL     1     -17.423  28.132  21.853  1.00  0.00     0.100 C 
ATOM     33  C   UNL     1     -16.251  27.150  19.988  1.00  0.00     0.100 C 
ATOM     34  C   UNL     1     -16.090  28.613  22.438  1.00  0.00     0.100 C 
ATOM     35  C   UNL     1     -14.919  27.631  20.572  1.00  0.00     0.100 C 
ATOM     36  N   UNL     1     -14.993  27.725  22.036  1.00  0.00    -0.301 NA
BRANCH  36  37
ATOM     37  C   UNL     1     -13.722  28.186  22.592  1.00  0.00     0.081 C 
ATOM     38  C   UNL     1     -12.697  27.066  22.617  1.00  0.00     0.021 C 
ENDBRANCH  36  37
ENDBRANCH  30  31
ENDBRANCH   2  30
TORSDOF 7
ENDMDL
MODEL 6
REMARK VINA RESULT:    -2.713      3.829     12.258
REMARK INTER + INTRA:          -4.367
REMARK INTER:                  -4.217
REMARK INTRA:                  -0.150
REMARK UNBOUND:                -0.545
REMARK SMILES CCN1CCN(Cc2ccc(Nc3ncc(F)c(-c4cc(F)c5nc(C)n(C(C)C)c5c4)n3)nc2)CC1
REMARK SMILES IDX 34 1 8 2 9 3 35 4 10 5 11 6 12 7 13 9 18 10 33 11 16 12
REMARK SMILES IDX 15 13 14 14 17 15 19 16 21 17 23 18 20 19 24 20 31 21 25 22
REMARK SMILES IDX 27 23 32 24 22 25 26 26 28 27 29 28 30 29 7 30 6 31 5 32
REMARK SMILES IDX 36 33 4 34 37 35 3 36 2 37 1 38
REMARK H PARENT 12 8
ROOT
ATOM      1  N   UNL     1     -17.202  26.864  15.597  1.00  0.00    -0.239 NA
ATOM      2  C   UNL     1     -18.468  27.328  17.603  1.00  0.00    -0.015 A 
ATOM      3  C   UNL     1     -19.657  27.149  16.904  1.00  0.00     0.010 A 
ATOM      4  C   UNL     1     -17.278  27.175  16.910  1.00  0.00     0.118 A 
ATOM      5  C   UNL     1     -19.619  26.829  15.551  1.00  0.00     0.047 A 
ATOM      6  C   UNL     1     -18.377  26.699  14.950  1.00  0.00     0.132 A 
ENDROOT
BRANCH   6   7
ATOM      7  N   UNL     1     -18.356  26.373  13.570  1.00  0.00    -0.309 N 
ATOM      8  H   UNL     1     -18.945  25.588  13.310  1.00  0.00     0.171 HD
BRANCH   7   9
ATOM      9  C   UNL     1     -17.672  26.927  12.478  1.00  0.00     0.229 A 
ATOM     10  C   UNL     1     -16.796  26.679  10.394  1.00  0.00     0.112 A 
ATOM     11  N   UNL     1     -17.456  26.114  11.426  1.00  0.00    -0.210 NA
ATOM     12  C   UNL     1     -16.362  27.990  10.388  1.00  0.00     0.167 A 
ATOM     13  C   UNL     1     -16.645  28.718  11.525  1.00  0.00     0.156 A 
ATOM     14  N   UNL     1     -17.300  28.217  12.592  1.00  0.00    -0.218 NA
ATOM     15  F   UNL     1     -15.708  28.530   9.354  1.00  0.00    -0.203 F 
BRANCH  10  16
ATOM     16  C   UNL     1     -16.564  25.807   9.268  1.00  0.00     0.008 A 
ATOM     17  C   UNL     1     -15.001  24.797   7.698  1.00  0.00     0.151 A 
ATOM     18  C   UNL     1     -16.078  24.133   7.089  1.00  0.00     0.124 A 
ATOM     19  C   UNL     1     -15.262  25.633   8.791  1.00  0.00     0.052 A 
ATOM     20  N   UNL     1     -16.093  23.269   6.017  1.00  0.00    -0.230 NA
ATOM     21  C   UNL     1     -17.363  24.327   7.586  1.00  0.00     0.072 A 
ATOM     22  C   UNL     1     -17.356  22.941   5.862  1.00  0.00     0.107 A 
ATOM     23  N   UNL     1     -18.161  23.552   6.782  1.00  0.00    -0.326 N 
ATOM     24  C   UNL     1     -17.648  25.154   8.672  1.00  0.00     0.039 A 
ATOM     25  F   UNL     1     -13.748  24.638   7.253  1.00  0.00    -0.205 F 
ATOM     26  C   UNL     1     -17.891  22.026   4.833  1.00  0.00     0.088 C 
BRANCH  23  27
ATOM     27  C   UNL     1     -19.595  23.410   6.892  1.00  0.00     0.083 C 
ATOM     28  C   UNL     1     -20.234  24.635   7.551  1.00  0.00     0.031 C 
ATOM     29  C   UNL     1     -19.979  22.128   7.637  1.00  0.00     0.031 C 
ENDBRANCH  23  27
ENDBRANCH  10  16
ENDBRANCH   7   9
ENDBRANCH   6   7
BRANCH   2  30
ATOM     30  C   UNL     1     -18.473  27.678  19.068  1.00  0.00     0.121 C 
BRANCH  30  31
ATOM     31  N   UNL     1     -17.125  27.687  19.630  1.00  0.00    -0.296 NA
ATOM     32  C   UNL     1     -17.005  28.709  20.678  1.00  0.00     0.100 C 
ATOM     33  C   UNL     1     -16.772  26.365  20.160  1.00  0.00     0.100 C 
ATOM     34  C   UNL     1     -15.591  28.718  21.272  1.00  0.00     0.100 C 
ATOM     35  C   UNL     1     -15.359  26.374  20.753  1.00  0.00     0.100 C 
ATOM     36  N   UNL     1     -15.239  27.395  21.802  1.00  0.00    -0.301 NA
BRANCH  36  37
ATOM     37  C   UNL     1     -13.890  27.404  22.366  1.00  0.00     0.081 C 
ATOM     38  C   UNL     1     -12.954  26.519  21.561  1.00  0.00     0.021 C 
ENDBRANCH  36  37
ENDBRANCH  30  31
ENDBRANCH   2  30
TORSDOF 7
ENDMDL
